LAMMPS data file via write_data, version 3 Mar 2020, timestep = 100000

320 atoms
3 atom types

0.0000000000000000e+00 4.0180000000000000e+01 xlo xhi
0.0000000000000000e+00 3.9475999999999999e+01 ylo yhi
0.0000000000000000e+00 2.6283999999999999e+01 zlo zhi
0.0000000000000000e+00 0.0000000000000000e+00 0.0000000000000000e+00 xy xz yz

Masses

1 15.9994
2 28.0855
3 16.04

Pair Coeffs # lj/cut

1 0.06 3.11815
2 0.402 3.82641
3 0.294106 3.73

Atoms # full

1 444 1 0.0000000000000000e+00 1.0069110000000000e+01 1.3796899999999999e+00 9.2230600000000003e+00 0 0 0
2 444 1 0.0000000000000000e+00 7.7848800000000011e+00 1.4665299999999999e+00 1.0524110000000000e+01 0 0 0
3 444 1 0.0000000000000000e+00 8.0259499999999999e+00 2.6962100000000002e+00 8.2150599999999994e+00 0 0 0
4 444 1 0.0000000000000000e+00 7.9797500000000019e+00 6.7110000000000003e-02 8.3136299999999999e+00 0 0 0
5 444 1 0.0000000000000000e+00 6.6096100000000000e+00 7.5990999999999997e-01 1.2776650000000000e+01 0 0 0
6 444 1 0.0000000000000000e+00 6.6236699999999997e+00 1.8859660000000002e+01 1.0717300000000000e+01 0 0 0
7 444 1 0.0000000000000000e+00 5.1651400000000001e+00 1.3086300000000000e+00 1.0652910000000000e+01 0 0 0
8 444 1 0.0000000000000000e+00 5.8461900000000000e+00 2.5580399999999996e+00 1.3930499999999999e+00 0 0 0
9 444 1 0.0000000000000000e+00 4.0863100000000001e+00 8.9807999999999988e-01 3.6140000000000000e-01 0 0 0
10 444 1 0.0000000000000000e+00 5.8984199999999998e+00 1.9739999999999994e-02 2.0554100000000002e+00 0 0 0
11 444 1 0.0000000000000000e+00 2.1596799999999998e+00 2.4968599999999994e+00 1.1604399999999999e+00 0 0 0
12 444 1 0.0000000000000000e+00 1.6996100000000001e+00 7.3030999999999990e-01 1.2409990000000001e+01 0 0 0
13 444 1 0.0000000000000000e+00 2.6137100000000002e+00 1.5415399999999997e+00 1.0079910000000000e+01 0 0 0
14 444 1 0.0000000000000000e+00 1.4625500000000002e+00 1.8926770000000001e+01 1.0292809999999999e+01 0 0 0
15 444 1 0.0000000000000000e+00 4.4218099999999998e+00 2.5916000000000001e+00 8.4844799999999996e+00 0 0 0
16 444 1 0.0000000000000000e+00 9.8661999999999992e+00 1.6872039999999998e+01 9.4215000000000000e+00 0 0 0
17 444 1 0.0000000000000000e+00 7.3951300000000000e+00 1.6404250000000001e+01 1.0175850000000001e+01 0 0 0
18 444 1 0.0000000000000000e+00 8.5643700000000003e+00 1.4803500000000000e+01 8.4516200000000001e+00 0 0 0
19 444 1 0.0000000000000000e+00 6.4629500000000011e+00 1.6996390000000002e+01 1.2565070000000000e+01 0 0 0
20 444 1 0.0000000000000000e+00 4.8416899999999998e+00 1.6939150000000001e+01 1.0500460000000000e+01 0 0 0
21 444 1 0.0000000000000000e+00 5.9124900000000000e+00 1.4803500000000000e+01 7.6092000000000004e-01 0 0 0
22 444 1 0.0000000000000000e+00 3.9697800000000001e+00 1.6408200000000001e+01 3.9399999999999999e-03 0 0 0
23 444 1 0.0000000000000000e+00 1.9045300000000001e+00 1.4803500000000000e+01 2.6940999999999998e-01 0 0 0
24 444 1 0.0000000000000000e+00 1.6252800000000003e+00 1.7112850000000002e+01 1.2189200000000000e+01 0 0 0
25 444 1 0.0000000000000000e+00 2.3645900000000002e+00 1.6520710000000001e+01 9.7329699999999999e+00 0 0 0
26 444 1 0.0000000000000000e+00 4.2510399999999997e+00 1.4803500000000000e+01 9.0850600000000004e+00 0 0 0
27 444 2 0.0000000000000000e+00 8.4659300000000002e+00 1.4033699999999996e+00 9.0653500000000005e+00 0 0 0
28 444 2 0.0000000000000000e+00 6.5473299999999997e+00 6.6319999999999979e-01 1.1170700000000000e+01 0 0 0
29 444 2 0.0000000000000000e+00 5.6091300000000004e+00 1.0579600000000000e+00 8.6079999999999990e-01 0 0 0
30 444 2 0.0000000000000000e+00 2.5032100000000002e+00 1.0145299999999999e+00 6.3212999999999997e-01 0 0 0
31 444 2 0.0000000000000000e+00 1.4484900000000001e+00 7.1057000000000003e-01 1.0819810000000000e+01 0 0 0
32 444 2 0.0000000000000000e+00 4.0863100000000001e+00 1.3559999999999999e+00 9.4582999999999995e+00 0 0 0
33 444 2 0.0000000000000000e+00 8.4277599999999993e+00 1.6331219999999998e+01 8.9431300000000000e+00 0 0 0
34 444 2 0.0000000000000000e+00 6.3323700000000001e+00 1.7300360000000001e+01 1.0988030000000000e+01 0 0 0
35 444 2 0.0000000000000000e+00 5.4905999999999997e+00 1.6339120000000001e+01 5.2830999999999995e-01 0 0 0
36 444 2 0.0000000000000000e+00 2.3806699999999998e+00 1.6341089999999998e+01 2.4049999999999999e-01 0 0 0
37 444 2 0.0000000000000000e+00 1.3199099999999999e+00 1.7357600000000001e+01 1.0627940000000001e+01 0 0 0
38 444 2 0.0000000000000000e+00 3.9115200000000003e+00 1.6358850000000000e+01 9.3203099999999992e+00 0 0 0
39 444 1 0.0000000000000000e+00 1.0069110000000000e+01 1.3796899999999999e+00 2.2365060000000000e+01 0 0 0
40 444 1 0.0000000000000000e+00 7.7848800000000011e+00 1.4665299999999999e+00 2.3666110000000000e+01 0 0 0
41 444 1 0.0000000000000000e+00 8.0259499999999999e+00 2.6962100000000002e+00 2.1357060000000001e+01 0 0 0
42 444 1 0.0000000000000000e+00 7.9797500000000019e+00 6.7110000000000003e-02 2.1455629999999999e+01 0 0 0
43 444 1 0.0000000000000000e+00 6.6096100000000000e+00 7.5990999999999997e-01 2.5918650000000000e+01 0 0 0
44 444 1 0.0000000000000000e+00 6.6236699999999997e+00 1.8859660000000002e+01 2.3859300000000001e+01 0 0 0
45 444 1 0.0000000000000000e+00 5.1651400000000001e+00 1.3086300000000000e+00 2.3794910000000002e+01 0 0 0
46 444 1 0.0000000000000000e+00 5.8461900000000000e+00 2.5580399999999996e+00 1.4535049999999998e+01 0 0 0
47 444 1 0.0000000000000000e+00 4.0863100000000001e+00 8.9807999999999988e-01 1.3503399999999997e+01 0 0 0
48 444 1 0.0000000000000000e+00 5.8984199999999998e+00 1.9739999999999994e-02 1.5197410000000001e+01 0 0 0
49 444 1 0.0000000000000000e+00 2.1596799999999998e+00 2.4968599999999994e+00 1.4302440000000001e+01 0 0 0
50 444 1 0.0000000000000000e+00 1.6996100000000001e+00 7.3030999999999990e-01 2.5551990000000000e+01 0 0 0
51 444 1 0.0000000000000000e+00 2.6137100000000002e+00 1.5415399999999997e+00 2.3221910000000001e+01 0 0 0
52 444 1 0.0000000000000000e+00 1.4625500000000002e+00 1.8926770000000001e+01 2.3434809999999999e+01 0 0 0
53 444 1 0.0000000000000000e+00 4.4218099999999998e+00 2.5916000000000001e+00 2.1626480000000001e+01 0 0 0
54 444 1 0.0000000000000000e+00 9.8661999999999992e+00 1.6872039999999998e+01 2.2563500000000001e+01 0 0 0
55 444 1 0.0000000000000000e+00 7.3951300000000000e+00 1.6404250000000001e+01 2.3317850000000000e+01 0 0 0
56 444 1 0.0000000000000000e+00 8.5643700000000003e+00 1.4803500000000000e+01 2.1593620000000001e+01 0 0 0
57 444 1 0.0000000000000000e+00 6.4629500000000011e+00 1.6996390000000002e+01 2.5707070000000002e+01 0 0 0
58 444 1 0.0000000000000000e+00 4.8416899999999998e+00 1.6939150000000001e+01 2.3642460000000000e+01 0 0 0
59 444 1 0.0000000000000000e+00 5.9124900000000000e+00 1.4803500000000000e+01 1.3902920000000000e+01 0 0 0
60 444 1 0.0000000000000000e+00 3.9697800000000001e+00 1.6408200000000001e+01 1.3145940000000000e+01 0 0 0
61 444 1 0.0000000000000000e+00 1.9045300000000001e+00 1.4803500000000000e+01 1.3411410000000000e+01 0 0 0
62 444 1 0.0000000000000000e+00 1.6252800000000003e+00 1.7112850000000002e+01 2.5331199999999999e+01 0 0 0
63 444 1 0.0000000000000000e+00 2.3645900000000002e+00 1.6520710000000001e+01 2.2874970000000001e+01 0 0 0
64 444 1 0.0000000000000000e+00 4.2510399999999997e+00 1.4803500000000000e+01 2.2227060000000002e+01 0 0 0
65 444 2 0.0000000000000000e+00 8.4659300000000002e+00 1.4033699999999996e+00 2.2207350000000002e+01 0 0 0
66 444 2 0.0000000000000000e+00 6.5473299999999997e+00 6.6319999999999979e-01 2.4312700000000000e+01 0 0 0
67 444 2 0.0000000000000000e+00 5.6091300000000004e+00 1.0579600000000000e+00 1.4002800000000002e+01 0 0 0
68 444 2 0.0000000000000000e+00 2.5032100000000002e+00 1.0145299999999999e+00 1.3774130000000000e+01 0 0 0
69 444 2 0.0000000000000000e+00 1.4484900000000001e+00 7.1057000000000003e-01 2.3961810000000000e+01 0 0 0
70 444 2 0.0000000000000000e+00 4.0863100000000001e+00 1.3559999999999999e+00 2.2600300000000001e+01 0 0 0
71 444 2 0.0000000000000000e+00 8.4277599999999993e+00 1.6331219999999998e+01 2.2085129999999999e+01 0 0 0
72 444 2 0.0000000000000000e+00 6.3323700000000001e+00 1.7300360000000001e+01 2.4130030000000001e+01 0 0 0
73 444 2 0.0000000000000000e+00 5.4905999999999997e+00 1.6339120000000001e+01 1.3670310000000002e+01 0 0 0
74 444 2 0.0000000000000000e+00 2.3806699999999998e+00 1.6341089999999998e+01 1.3382500000000000e+01 0 0 0
75 444 2 0.0000000000000000e+00 1.3199099999999999e+00 1.7357600000000001e+01 2.3769939999999998e+01 0 0 0
76 444 2 0.0000000000000000e+00 3.9115200000000003e+00 1.6358850000000000e+01 2.2462309999999999e+01 0 0 0
313 453 3 0.0000000000000000e+00 2.9318468212378090e+00 5.1488239719132798e+00 2.4567502850722331e+01 -1 1 0
318 458 3 0.0000000000000000e+00 6.4659041806986588e+00 9.6117313383775098e+00 1.8370818340992685e+01 -3 -3 -2
307 447 3 0.0000000000000000e+00 3.1082005603134903e+00 2.5466969313160481e+00 1.7448717044987440e+01 -3 -2 1
305 445 3 0.0000000000000000e+00 1.8634017802892046e+01 1.7685505573396235e+01 2.0957530951220832e+01 2 0 1
316 456 3 0.0000000000000000e+00 1.5681012030817001e+00 9.4842397127875622e-01 1.7477902591627132e+01 0 0 0
310 450 3 0.0000000000000000e+00 1.8551188208998472e+01 1.4712594070880339e+01 2.5241439023791660e+01 -1 0 0
319 459 3 0.0000000000000000e+00 1.7013240053950647e+00 1.0949319514655656e+01 1.5502435475618801e+01 1 1 -2
77 444 1 0.0000000000000000e+00 1.0069110000000000e+01 2.1117689999999993e+01 9.2230600000000003e+00 0 0 0
78 444 1 0.0000000000000000e+00 7.7848800000000011e+00 2.1204529999999998e+01 1.0524110000000000e+01 0 0 0
79 444 1 0.0000000000000000e+00 8.0259599999999995e+00 2.2434209999999997e+01 8.2150599999999994e+00 0 0 0
80 444 1 0.0000000000000000e+00 7.9797500000000019e+00 1.9805109999999996e+01 8.3136299999999999e+00 0 0 0
81 444 1 0.0000000000000000e+00 6.6096100000000000e+00 2.0497909999999997e+01 1.2776650000000000e+01 0 0 0
82 444 1 0.0000000000000000e+00 6.6236699999999997e+00 3.8597659999999998e+01 1.0717300000000000e+01 0 0 0
83 444 1 0.0000000000000000e+00 5.1651400000000001e+00 2.1046630000000000e+01 1.0652910000000000e+01 0 0 0
84 444 1 0.0000000000000000e+00 5.8461900000000000e+00 2.2296039999999998e+01 1.3930499999999999e+00 0 0 0
85 444 1 0.0000000000000000e+00 4.0863100000000001e+00 2.0636080000000000e+01 3.6140000000000000e-01 0 0 0
86 444 1 0.0000000000000000e+00 5.8984199999999998e+00 1.9757739999999995e+01 2.0554100000000002e+00 0 0 0
87 444 1 0.0000000000000000e+00 2.1596799999999998e+00 2.2234859999999998e+01 1.1604399999999999e+00 0 0 0
88 444 1 0.0000000000000000e+00 1.6996100000000001e+00 2.0468309999999999e+01 1.2409990000000001e+01 0 0 0
89 444 1 0.0000000000000000e+00 2.6137100000000002e+00 2.1279539999999994e+01 1.0079910000000000e+01 0 0 0
90 444 1 0.0000000000000000e+00 1.4625500000000002e+00 3.8664769999999997e+01 1.0292809999999999e+01 0 0 0
91 444 1 0.0000000000000000e+00 4.4218099999999998e+00 2.2329599999999999e+01 8.4844799999999996e+00 0 0 0
92 444 1 0.0000000000000000e+00 9.8661999999999992e+00 3.6610039999999998e+01 9.4215000000000000e+00 0 0 0
93 444 1 0.0000000000000000e+00 7.3951300000000000e+00 3.6142249999999997e+01 1.0175850000000001e+01 0 0 0
94 444 1 0.0000000000000000e+00 8.5643700000000003e+00 3.4541499999999992e+01 8.4516200000000001e+00 0 0 0
95 444 1 0.0000000000000000e+00 6.4629500000000011e+00 3.6734389999999998e+01 1.2565070000000000e+01 0 0 0
96 444 1 0.0000000000000000e+00 4.8416899999999998e+00 3.6677149999999990e+01 1.0500460000000000e+01 0 0 0
97 444 1 0.0000000000000000e+00 5.9124900000000000e+00 3.4541499999999992e+01 7.6092000000000004e-01 0 0 0
98 444 1 0.0000000000000000e+00 3.9697800000000001e+00 3.6146200000000000e+01 3.9399999999999999e-03 0 0 0
99 444 1 0.0000000000000000e+00 1.9045300000000001e+00 3.4541499999999992e+01 2.6940999999999998e-01 0 0 0
100 444 1 0.0000000000000000e+00 1.6252800000000003e+00 3.6850850000000001e+01 1.2189200000000000e+01 0 0 0
101 444 1 0.0000000000000000e+00 2.3645900000000002e+00 3.6258710000000001e+01 9.7329699999999999e+00 0 0 0
102 444 1 0.0000000000000000e+00 4.2510399999999997e+00 3.4541499999999992e+01 9.0850600000000004e+00 0 0 0
103 444 2 0.0000000000000000e+00 8.4659300000000002e+00 2.1141369999999995e+01 9.0653500000000005e+00 0 0 0
104 444 2 0.0000000000000000e+00 6.5473299999999997e+00 2.0401199999999999e+01 1.1170700000000000e+01 0 0 0
105 444 2 0.0000000000000000e+00 5.6091300000000004e+00 2.0795959999999994e+01 8.6079999999999990e-01 0 0 0
106 444 2 0.0000000000000000e+00 2.5032100000000002e+00 2.0752530000000000e+01 6.3212999999999997e-01 0 0 0
107 444 2 0.0000000000000000e+00 1.4484900000000001e+00 2.0448569999999989e+01 1.0819810000000000e+01 0 0 0
108 444 2 0.0000000000000000e+00 4.0863100000000001e+00 2.1094000000000001e+01 9.4582999999999995e+00 0 0 0
109 444 2 0.0000000000000000e+00 8.4277599999999993e+00 3.6069220000000001e+01 8.9431300000000000e+00 0 0 0
110 444 2 0.0000000000000000e+00 6.3323700000000001e+00 3.7038359999999990e+01 1.0988030000000000e+01 0 0 0
111 444 2 0.0000000000000000e+00 5.4905999999999997e+00 3.6077120000000001e+01 5.2830999999999995e-01 0 0 0
112 444 2 0.0000000000000000e+00 2.3806699999999998e+00 3.6079089999999994e+01 2.4049999999999999e-01 0 0 0
113 444 2 0.0000000000000000e+00 1.3199099999999999e+00 3.7095599999999997e+01 1.0627940000000001e+01 0 0 0
114 444 2 0.0000000000000000e+00 3.9115200000000003e+00 3.6096850000000003e+01 9.3203099999999992e+00 0 0 0
115 444 1 0.0000000000000000e+00 1.0069110000000000e+01 2.1117689999999993e+01 2.2365060000000000e+01 0 0 0
116 444 1 0.0000000000000000e+00 7.7848800000000011e+00 2.1204529999999998e+01 2.3666110000000000e+01 0 0 0
117 444 1 0.0000000000000000e+00 8.0259599999999995e+00 2.2434209999999997e+01 2.1357060000000001e+01 0 0 0
118 444 1 0.0000000000000000e+00 7.9797500000000019e+00 1.9805109999999996e+01 2.1455629999999999e+01 0 0 0
119 444 1 0.0000000000000000e+00 6.6096100000000000e+00 2.0497909999999997e+01 2.5918650000000000e+01 0 0 0
120 444 1 0.0000000000000000e+00 6.6236699999999997e+00 3.8597659999999998e+01 2.3859300000000001e+01 0 0 0
121 444 1 0.0000000000000000e+00 5.1651400000000001e+00 2.1046630000000000e+01 2.3794910000000002e+01 0 0 0
122 444 1 0.0000000000000000e+00 5.8461900000000000e+00 2.2296039999999998e+01 1.4535049999999998e+01 0 0 0
123 444 1 0.0000000000000000e+00 4.0863100000000001e+00 2.0636080000000000e+01 1.3503399999999997e+01 0 0 0
124 444 1 0.0000000000000000e+00 5.8984199999999998e+00 1.9757739999999995e+01 1.5197410000000001e+01 0 0 0
125 444 1 0.0000000000000000e+00 2.1596799999999998e+00 2.2234859999999998e+01 1.4302440000000001e+01 0 0 0
126 444 1 0.0000000000000000e+00 1.6996100000000001e+00 2.0468309999999999e+01 2.5551990000000000e+01 0 0 0
127 444 1 0.0000000000000000e+00 2.6137100000000002e+00 2.1279539999999994e+01 2.3221910000000001e+01 0 0 0
128 444 1 0.0000000000000000e+00 1.4625500000000002e+00 3.8664769999999997e+01 2.3434809999999999e+01 0 0 0
129 444 1 0.0000000000000000e+00 4.4218099999999998e+00 2.2329599999999999e+01 2.1626480000000001e+01 0 0 0
130 444 1 0.0000000000000000e+00 9.8661999999999992e+00 3.6610039999999998e+01 2.2563500000000001e+01 0 0 0
131 444 1 0.0000000000000000e+00 7.3951300000000000e+00 3.6142249999999997e+01 2.3317850000000000e+01 0 0 0
132 444 1 0.0000000000000000e+00 8.5643700000000003e+00 3.4541499999999992e+01 2.1593620000000001e+01 0 0 0
133 444 1 0.0000000000000000e+00 6.4629500000000011e+00 3.6734389999999998e+01 2.5707070000000002e+01 0 0 0
134 444 1 0.0000000000000000e+00 4.8416899999999998e+00 3.6677149999999990e+01 2.3642460000000000e+01 0 0 0
135 444 1 0.0000000000000000e+00 5.9124900000000000e+00 3.4541499999999992e+01 1.3902920000000000e+01 0 0 0
136 444 1 0.0000000000000000e+00 3.9697800000000001e+00 3.6146200000000000e+01 1.3145940000000000e+01 0 0 0
137 444 1 0.0000000000000000e+00 1.9045300000000001e+00 3.4541499999999992e+01 1.3411410000000000e+01 0 0 0
138 444 1 0.0000000000000000e+00 1.6252800000000003e+00 3.6850850000000001e+01 2.5331199999999999e+01 0 0 0
139 444 1 0.0000000000000000e+00 2.3645900000000002e+00 3.6258710000000001e+01 2.2874970000000001e+01 0 0 0
140 444 1 0.0000000000000000e+00 4.2510399999999997e+00 3.4541499999999992e+01 2.2227060000000002e+01 0 0 0
141 444 2 0.0000000000000000e+00 8.4659300000000002e+00 2.1141369999999995e+01 2.2207350000000002e+01 0 0 0
142 444 2 0.0000000000000000e+00 6.5473299999999997e+00 2.0401199999999999e+01 2.4312700000000000e+01 0 0 0
143 444 2 0.0000000000000000e+00 5.6091300000000004e+00 2.0795959999999994e+01 1.4002800000000002e+01 0 0 0
144 444 2 0.0000000000000000e+00 2.5032100000000002e+00 2.0752530000000000e+01 1.3774130000000000e+01 0 0 0
145 444 2 0.0000000000000000e+00 1.4484900000000001e+00 2.0448569999999989e+01 2.3961810000000000e+01 0 0 0
146 444 2 0.0000000000000000e+00 4.0863100000000001e+00 2.1094000000000001e+01 2.2600300000000001e+01 0 0 0
147 444 2 0.0000000000000000e+00 8.4277599999999993e+00 3.6069220000000001e+01 2.2085129999999999e+01 0 0 0
148 444 2 0.0000000000000000e+00 6.3323700000000001e+00 3.7038359999999990e+01 2.4130030000000001e+01 0 0 0
149 444 2 0.0000000000000000e+00 5.4905999999999997e+00 3.6077120000000001e+01 1.3670310000000002e+01 0 0 0
150 444 2 0.0000000000000000e+00 2.3806699999999998e+00 3.6079089999999994e+01 1.3382500000000000e+01 0 0 0
151 444 2 0.0000000000000000e+00 1.3199099999999999e+00 3.7095599999999997e+01 2.3769939999999998e+01 0 0 0
152 444 2 0.0000000000000000e+00 3.9115200000000003e+00 3.6096850000000003e+01 2.2462309999999999e+01 0 0 0
312 452 3 0.0000000000000000e+00 9.5009981220663260e+00 3.4736162572945524e+01 1.2532735275626672e+01 0 -1 0
311 451 3 0.0000000000000000e+00 9.4361914931321884e+00 2.2088406125084401e+01 2.1169636218399202e+00 0 0 0
308 448 3 0.0000000000000000e+00 1.8280477593763703e+01 3.5010336871349431e+01 9.0026572835805130e+00 -1 0 1
153 444 1 0.0000000000000000e+00 3.0159109999999998e+01 1.3796899999999999e+00 9.2230600000000003e+00 0 0 0
154 444 1 0.0000000000000000e+00 2.7874880000000001e+01 1.4665299999999999e+00 1.0524110000000000e+01 0 0 0
155 444 1 0.0000000000000000e+00 2.8115950000000002e+01 2.6962100000000002e+00 8.2150599999999994e+00 0 0 0
156 444 1 0.0000000000000000e+00 2.8069749999999999e+01 6.7110000000000003e-02 8.3136299999999999e+00 0 0 0
157 444 1 0.0000000000000000e+00 2.6699610000000000e+01 7.5990999999999997e-01 1.2776650000000000e+01 0 0 0
158 444 1 0.0000000000000000e+00 2.6713670000000000e+01 1.8859660000000002e+01 1.0717300000000000e+01 0 0 0
159 444 1 0.0000000000000000e+00 2.5255140000000001e+01 1.3086300000000000e+00 1.0652910000000000e+01 0 0 0
160 444 1 0.0000000000000000e+00 2.5936190000000000e+01 2.5580399999999996e+00 1.3930499999999999e+00 0 0 0
161 444 1 0.0000000000000000e+00 2.4176310000000001e+01 8.9807999999999988e-01 3.6140000000000000e-01 0 0 0
162 444 1 0.0000000000000000e+00 2.5988420000000001e+01 1.9739999999999994e-02 2.0554100000000002e+00 0 0 0
163 444 1 0.0000000000000000e+00 2.2249669999999998e+01 2.4968599999999994e+00 1.1604399999999999e+00 0 0 0
164 444 1 0.0000000000000000e+00 2.1789610000000000e+01 7.3030999999999990e-01 1.2409990000000001e+01 0 0 0
165 444 1 0.0000000000000000e+00 2.2703710000000001e+01 1.5415399999999997e+00 1.0079910000000000e+01 0 0 0
166 444 1 0.0000000000000000e+00 2.1552550000000000e+01 1.8926770000000001e+01 1.0292809999999999e+01 0 0 0
167 444 1 0.0000000000000000e+00 2.4511810000000001e+01 2.5916000000000001e+00 8.4844799999999996e+00 0 0 0
168 444 1 0.0000000000000000e+00 2.9956199999999999e+01 1.6872039999999998e+01 9.4215000000000000e+00 0 0 0
169 444 1 0.0000000000000000e+00 2.7485130000000002e+01 1.6404250000000001e+01 1.0175850000000001e+01 0 0 0
170 444 1 0.0000000000000000e+00 2.8654370000000000e+01 1.4803500000000000e+01 8.4516200000000001e+00 0 0 0
171 444 1 0.0000000000000000e+00 2.6552949999999999e+01 1.6996390000000002e+01 1.2565070000000000e+01 0 0 0
172 444 1 0.0000000000000000e+00 2.4931690000000003e+01 1.6939150000000001e+01 1.0500460000000000e+01 0 0 0
173 444 1 0.0000000000000000e+00 2.6002490000000002e+01 1.4803500000000000e+01 7.6092000000000004e-01 0 0 0
174 444 1 0.0000000000000000e+00 2.4059780000000000e+01 1.6408200000000001e+01 3.9399999999999999e-03 0 0 0
175 444 1 0.0000000000000000e+00 2.1994530000000005e+01 1.4803500000000000e+01 2.6940999999999998e-01 0 0 0
176 444 1 0.0000000000000000e+00 2.1715280000000000e+01 1.7112850000000002e+01 1.2189200000000000e+01 0 0 0
177 444 1 0.0000000000000000e+00 2.2454590000000003e+01 1.6520710000000001e+01 9.7329699999999999e+00 0 0 0
178 444 1 0.0000000000000000e+00 2.4341040000000000e+01 1.4803500000000000e+01 9.0850600000000004e+00 0 0 0
179 444 2 0.0000000000000000e+00 2.8555930000000000e+01 1.4033699999999996e+00 9.0653500000000005e+00 0 0 0
180 444 2 0.0000000000000000e+00 2.6637330000000002e+01 6.6319999999999979e-01 1.1170700000000000e+01 0 0 0
181 444 2 0.0000000000000000e+00 2.5699130000000004e+01 1.0579600000000000e+00 8.6079999999999990e-01 0 0 0
182 444 2 0.0000000000000000e+00 2.2593209999999999e+01 1.0145299999999999e+00 6.3212999999999997e-01 0 0 0
183 444 2 0.0000000000000000e+00 2.1538490000000003e+01 7.1057000000000003e-01 1.0819810000000000e+01 0 0 0
184 444 2 0.0000000000000000e+00 2.4176310000000001e+01 1.3559999999999999e+00 9.4582999999999995e+00 0 0 0
185 444 2 0.0000000000000000e+00 2.8517760000000003e+01 1.6331219999999998e+01 8.9431300000000000e+00 0 0 0
186 444 2 0.0000000000000000e+00 2.6422370000000004e+01 1.7300360000000001e+01 1.0988030000000000e+01 0 0 0
187 444 2 0.0000000000000000e+00 2.5580600000000004e+01 1.6339120000000001e+01 5.2830999999999995e-01 0 0 0
188 444 2 0.0000000000000000e+00 2.2470669999999998e+01 1.6341089999999998e+01 2.4049999999999999e-01 0 0 0
189 444 2 0.0000000000000000e+00 2.1409910000000000e+01 1.7357600000000001e+01 1.0627940000000001e+01 0 0 0
190 444 2 0.0000000000000000e+00 2.4001519999999999e+01 1.6358850000000000e+01 9.3203099999999992e+00 0 0 0
191 444 1 0.0000000000000000e+00 3.0159109999999998e+01 1.3796899999999999e+00 2.2365060000000000e+01 0 0 0
192 444 1 0.0000000000000000e+00 2.7874880000000001e+01 1.4665299999999999e+00 2.3666110000000000e+01 0 0 0
193 444 1 0.0000000000000000e+00 2.8115950000000002e+01 2.6962100000000002e+00 2.1357060000000001e+01 0 0 0
194 444 1 0.0000000000000000e+00 2.8069749999999999e+01 6.7110000000000003e-02 2.1455629999999999e+01 0 0 0
195 444 1 0.0000000000000000e+00 2.6699610000000000e+01 7.5990999999999997e-01 2.5918650000000000e+01 0 0 0
196 444 1 0.0000000000000000e+00 2.6713670000000000e+01 1.8859660000000002e+01 2.3859300000000001e+01 0 0 0
197 444 1 0.0000000000000000e+00 2.5255140000000001e+01 1.3086300000000000e+00 2.3794910000000002e+01 0 0 0
198 444 1 0.0000000000000000e+00 2.5936190000000000e+01 2.5580399999999996e+00 1.4535049999999998e+01 0 0 0
199 444 1 0.0000000000000000e+00 2.4176310000000001e+01 8.9807999999999988e-01 1.3503399999999997e+01 0 0 0
200 444 1 0.0000000000000000e+00 2.5988420000000001e+01 1.9739999999999994e-02 1.5197410000000001e+01 0 0 0
201 444 1 0.0000000000000000e+00 2.2249669999999998e+01 2.4968599999999994e+00 1.4302440000000001e+01 0 0 0
202 444 1 0.0000000000000000e+00 2.1789610000000000e+01 7.3030999999999990e-01 2.5551990000000000e+01 0 0 0
203 444 1 0.0000000000000000e+00 2.2703710000000001e+01 1.5415399999999997e+00 2.3221910000000001e+01 0 0 0
204 444 1 0.0000000000000000e+00 2.1552550000000000e+01 1.8926770000000001e+01 2.3434809999999999e+01 0 0 0
205 444 1 0.0000000000000000e+00 2.4511810000000001e+01 2.5916000000000001e+00 2.1626480000000001e+01 0 0 0
206 444 1 0.0000000000000000e+00 2.9956199999999999e+01 1.6872039999999998e+01 2.2563500000000001e+01 0 0 0
207 444 1 0.0000000000000000e+00 2.7485130000000002e+01 1.6404250000000001e+01 2.3317850000000000e+01 0 0 0
208 444 1 0.0000000000000000e+00 2.8654370000000000e+01 1.4803500000000000e+01 2.1593620000000001e+01 0 0 0
209 444 1 0.0000000000000000e+00 2.6552949999999999e+01 1.6996390000000002e+01 2.5707070000000002e+01 0 0 0
210 444 1 0.0000000000000000e+00 2.4931690000000003e+01 1.6939150000000001e+01 2.3642460000000000e+01 0 0 0
211 444 1 0.0000000000000000e+00 2.6002490000000002e+01 1.4803500000000000e+01 1.3902920000000000e+01 0 0 0
212 444 1 0.0000000000000000e+00 2.4059780000000000e+01 1.6408200000000001e+01 1.3145940000000000e+01 0 0 0
213 444 1 0.0000000000000000e+00 2.1994530000000005e+01 1.4803500000000000e+01 1.3411410000000000e+01 0 0 0
214 444 1 0.0000000000000000e+00 2.1715280000000000e+01 1.7112850000000002e+01 2.5331199999999999e+01 0 0 0
215 444 1 0.0000000000000000e+00 2.2454590000000003e+01 1.6520710000000001e+01 2.2874970000000001e+01 0 0 0
216 444 1 0.0000000000000000e+00 2.4341040000000000e+01 1.4803500000000000e+01 2.2227060000000002e+01 0 0 0
217 444 2 0.0000000000000000e+00 2.8555930000000000e+01 1.4033699999999996e+00 2.2207350000000002e+01 0 0 0
218 444 2 0.0000000000000000e+00 2.6637330000000002e+01 6.6319999999999979e-01 2.4312700000000000e+01 0 0 0
219 444 2 0.0000000000000000e+00 2.5699130000000004e+01 1.0579600000000000e+00 1.4002800000000002e+01 0 0 0
220 444 2 0.0000000000000000e+00 2.2593209999999999e+01 1.0145299999999999e+00 1.3774130000000000e+01 0 0 0
221 444 2 0.0000000000000000e+00 2.1538490000000003e+01 7.1057000000000003e-01 2.3961810000000000e+01 0 0 0
222 444 2 0.0000000000000000e+00 2.4176310000000001e+01 1.3559999999999999e+00 2.2600300000000001e+01 0 0 0
223 444 2 0.0000000000000000e+00 2.8517760000000003e+01 1.6331219999999998e+01 2.2085129999999999e+01 0 0 0
224 444 2 0.0000000000000000e+00 2.6422370000000004e+01 1.7300360000000001e+01 2.4130030000000001e+01 0 0 0
225 444 2 0.0000000000000000e+00 2.5580600000000004e+01 1.6339120000000001e+01 1.3670310000000002e+01 0 0 0
226 444 2 0.0000000000000000e+00 2.2470669999999998e+01 1.6341089999999998e+01 1.3382500000000000e+01 0 0 0
227 444 2 0.0000000000000000e+00 2.1409910000000000e+01 1.7357600000000001e+01 2.3769939999999998e+01 0 0 0
228 444 2 0.0000000000000000e+00 2.4001519999999999e+01 1.6358850000000000e+01 2.2462309999999999e+01 0 0 0
315 455 3 0.0000000000000000e+00 3.3108002367594636e+01 1.7945525974950691e+01 2.0067797766136948e+01 0 0 0
229 444 1 0.0000000000000000e+00 3.0159109999999998e+01 2.1117689999999993e+01 9.2230600000000003e+00 0 0 0
230 444 1 0.0000000000000000e+00 2.7874880000000001e+01 2.1204529999999998e+01 1.0524110000000000e+01 0 0 0
231 444 1 0.0000000000000000e+00 2.8115950000000002e+01 2.2434209999999997e+01 8.2150599999999994e+00 0 0 0
232 444 1 0.0000000000000000e+00 2.8069749999999999e+01 1.9805109999999996e+01 8.3136299999999999e+00 0 0 0
233 444 1 0.0000000000000000e+00 2.6699610000000000e+01 2.0497909999999997e+01 1.2776650000000000e+01 0 0 0
234 444 1 0.0000000000000000e+00 2.6713670000000000e+01 3.8597659999999998e+01 1.0717300000000000e+01 0 0 0
235 444 1 0.0000000000000000e+00 2.5255140000000001e+01 2.1046630000000000e+01 1.0652910000000000e+01 0 0 0
236 444 1 0.0000000000000000e+00 2.5936190000000000e+01 2.2296039999999998e+01 1.3930499999999999e+00 0 0 0
237 444 1 0.0000000000000000e+00 2.4176310000000001e+01 2.0636080000000000e+01 3.6140000000000000e-01 0 0 0
238 444 1 0.0000000000000000e+00 2.5988420000000001e+01 1.9757739999999995e+01 2.0554100000000002e+00 0 0 0
239 444 1 0.0000000000000000e+00 2.2249669999999998e+01 2.2234859999999998e+01 1.1604399999999999e+00 0 0 0
240 444 1 0.0000000000000000e+00 2.1789610000000000e+01 2.0468309999999999e+01 1.2409990000000001e+01 0 0 0
241 444 1 0.0000000000000000e+00 2.2703710000000001e+01 2.1279539999999994e+01 1.0079910000000000e+01 0 0 0
242 444 1 0.0000000000000000e+00 2.1552550000000000e+01 3.8664769999999997e+01 1.0292809999999999e+01 0 0 0
243 444 1 0.0000000000000000e+00 2.4511810000000001e+01 2.2329599999999999e+01 8.4844799999999996e+00 0 0 0
244 444 1 0.0000000000000000e+00 2.9956199999999999e+01 3.6610039999999998e+01 9.4215000000000000e+00 0 0 0
245 444 1 0.0000000000000000e+00 2.7485130000000002e+01 3.6142249999999997e+01 1.0175850000000001e+01 0 0 0
246 444 1 0.0000000000000000e+00 2.8654370000000000e+01 3.4541499999999992e+01 8.4516200000000001e+00 0 0 0
247 444 1 0.0000000000000000e+00 2.6552949999999999e+01 3.6734389999999998e+01 1.2565070000000000e+01 0 0 0
248 444 1 0.0000000000000000e+00 2.4931690000000003e+01 3.6677149999999990e+01 1.0500460000000000e+01 0 0 0
249 444 1 0.0000000000000000e+00 2.6002490000000002e+01 3.4541499999999992e+01 7.6092000000000004e-01 0 0 0
250 444 1 0.0000000000000000e+00 2.4059780000000000e+01 3.6146200000000000e+01 3.9399999999999999e-03 0 0 0
251 444 1 0.0000000000000000e+00 2.1994530000000005e+01 3.4541499999999992e+01 2.6940999999999998e-01 0 0 0
252 444 1 0.0000000000000000e+00 2.1715280000000000e+01 3.6850850000000001e+01 1.2189200000000000e+01 0 0 0
253 444 1 0.0000000000000000e+00 2.2454590000000003e+01 3.6258710000000001e+01 9.7329699999999999e+00 0 0 0
254 444 1 0.0000000000000000e+00 2.4341040000000000e+01 3.4541499999999992e+01 9.0850600000000004e+00 0 0 0
255 444 2 0.0000000000000000e+00 2.8555930000000000e+01 2.1141369999999995e+01 9.0653500000000005e+00 0 0 0
256 444 2 0.0000000000000000e+00 2.6637330000000002e+01 2.0401199999999999e+01 1.1170700000000000e+01 0 0 0
257 444 2 0.0000000000000000e+00 2.5699130000000004e+01 2.0795959999999994e+01 8.6079999999999990e-01 0 0 0
258 444 2 0.0000000000000000e+00 2.2593209999999999e+01 2.0752530000000000e+01 6.3212999999999997e-01 0 0 0
259 444 2 0.0000000000000000e+00 2.1538490000000003e+01 2.0448569999999989e+01 1.0819810000000000e+01 0 0 0
260 444 2 0.0000000000000000e+00 2.4176310000000001e+01 2.1094000000000001e+01 9.4582999999999995e+00 0 0 0
261 444 2 0.0000000000000000e+00 2.8517760000000003e+01 3.6069220000000001e+01 8.9431300000000000e+00 0 0 0
262 444 2 0.0000000000000000e+00 2.6422370000000004e+01 3.7038359999999990e+01 1.0988030000000000e+01 0 0 0
263 444 2 0.0000000000000000e+00 2.5580600000000004e+01 3.6077120000000001e+01 5.2830999999999995e-01 0 0 0